<?xml version="1.0" encoding="UTF-8"?>

<!-- generated on 2025-05-13 13:27:24 by Eclipse SUMO GUI Version v1_21_0+2143-fc8bfb330ab
<sumoConfiguration xmlns:xsi="http://www.w3.org/2001/XMLSchema-instance" xsi:noNamespaceSchemaLocation="http://sumo.dlr.de/xsd/sumoConfiguration.xsd">

    <input>
        <net-file value="/Users/kiani014/Documents/Github/sumo/tools/2025-05-13-13-27-04/osm.net.xml.gz"/>
        <route-files value="/Users/kiani014/Documents/Github/sumo/tools/2025-05-13-13-27-04/osm.passenger.trips.xml"/>
        <additional-files value="/Users/kiani014/Documents/Github/sumo/tools/2025-05-13-13-27-04/osm.poly.xml.gz,/Users/kiani014/Documents/Github/sumo/tools/2025-05-13-13-27-04/output.add.xml"/>
    </input>

    <output>
        <tripinfo-output value="/Users/kiani014/Documents/Github/sumo/tools/2025-05-13-13-27-04/tripinfos.xml"/>
        <statistic-output value="/Users/kiani014/Documents/Github/sumo/tools/2025-05-13-13-27-04/stats.xml"/>
    </output>

    <processing>
        <ignore-route-errors value="true"/>
        <tls.actuated.jam-threshold value="30"/>
    </processing>

    <routing>
        <device.rerouting.adaptation-steps value="18"/>
        <device.rerouting.adaptation-interval value="10"/>
    </routing>

    <report>
        <verbose value="true"/>
        <duration-log.statistics value="true"/>
        <no-step-log value="true"/>
    </report>

    <gui_only>
        <gui-settings-file value="/Users/kiani014/Documents/Github/sumo/tools/2025-05-13-13-27-04/osm.view.xml"/>
    </gui_only>

</sumoConfiguration>
-->

<tripinfos xmlns:xsi="http://www.w3.org/2001/XMLSchema-instance" xsi:noNamespaceSchemaLocation="http://sumo.dlr.de/xsd/tripinfo_file.xsd">
</tripinfos>
